[Molden Format]
[N_ATOMS]
                     2
[ATOMS] (AU)
O1          1      8           0.00000000      0.00000000      0.00000000
C2          2      6           0.00000000      0.00000000      2.09249374
[CHARGE] (MULLIKEN)
  0.000000000000000E+000
  0.000000000000000E+000
[GTO] (AU)
   1
   s   6
  0.548467170E+04  0.183109981E-02
  0.825234950E+03  0.139500985E-01
  0.188046960E+03  0.684450927E-01
  0.529645000E+02  0.232714275E+00
  0.168975700E+02  0.470192950E+00
  0.579963530E+01  0.358520862E+00
   s   3
  0.155396160E+02 -0.110777504E+00
  0.359993360E+01 -0.148026305E+00
  0.101376180E+01  0.113076704E+01
   s   1
  0.270005800E+00  0.100000000E+01
   p   3
  0.155396160E+02  0.708742995E-01
  0.359993360E+01  0.339752798E+00
  0.101376180E+01  0.727158595E+00
   p   1
  0.270005800E+00  0.100000000E+01
   d   1
  0.800000000E+00  0.100000000E+01
 
   2
   s   6
  0.304752490E+04  0.183470016E-02
  0.457369510E+03  0.140373012E-01
  0.103948690E+03  0.688426061E-01
  0.292101550E+02  0.232184421E+00
  0.928666300E+01  0.467941342E+00
  0.316392700E+01  0.362312032E+00
   s   3
  0.786827240E+01 -0.119332409E+00
  0.188128850E+01 -0.160854212E+00
  0.544249300E+00  0.114345648E+01
   s   1
  0.168714400E+00  0.100000000E+01
   p   3
  0.786827240E+01  0.689990956E-01
  0.188128850E+01  0.316423980E+00
  0.544249300E+00  0.744308252E+00
   p   1
  0.168714400E+00  0.100000000E+01
   d   1
  0.800000000E+00  0.100000000E+01
 
[MO]
Sym=     1a  
Ene=   -20.6780
Spin= Alpha
Occup=    2.00000
   1         0.99558794
   2         0.02012007
   3        -0.00429785
   4        -0.00000000
   5         0.00000000
   6         0.00002632
   7         0.00000000
   8        -0.00000000
   9         0.00001697
  10         0.00000000
  11         0.00000000
  12        -0.00000000
  13         0.00000000
  14         0.00000000
  15        -0.00000000
  16         0.00001934
  17         0.00088450
  18         0.00114384
  19         0.00000000
  20        -0.00000000
  21        -0.00130164
  22        -0.00000000
  23         0.00000000
  24        -0.00092846
  25        -0.00000000
  26        -0.00000000
  27         0.00000000
  28        -0.00000000
  29         0.00000000
  30        -0.00000000
Sym=     2a  
Ene=   -11.3260
Spin= Alpha
Occup=    2.00000
   1        -0.00254737
   2         0.00392857
   3         0.00386589
   4         0.00000000
   5         0.00000000
   6         0.00446851
   7        -0.00000000
   8        -0.00000000
   9         0.00288087
  10        -0.00000000
  11        -0.00000000
  12        -0.00000000
  13        -0.00000000
  14        -0.00000000
  15        -0.00000000
  16         0.99530530
  17         0.01970583
  18        -0.00492547
  19        -0.00000000
  20         0.00000000
  21        -0.00012893
  22         0.00000000
  23        -0.00000000
  24        -0.00009196
  25        -0.00000000
  26        -0.00000000
  27         0.00000000
  28         0.00000000
  29        -0.00000000
  30        -0.00000000
Sym=     3a  
Ene=    -1.5822
Spin= Alpha
Occup=    2.00000
   1        -0.20503958
   2         0.40819289
   3         0.40025499
   4         0.00000000
   5         0.00000000
   6         0.06376157
   7        -0.00000000
   8        -0.00000000
   9         0.04110731
  10        -0.00000000
  11        -0.00000000
  12        -0.00000000
  13         0.00000000
  14         0.00000000
  15        -0.00000000
  16        -0.12760777
  17         0.13419991
  18         0.17753783
  19        -0.00000000
  20         0.00000000
  21        -0.09795761
  22        -0.00000000
  23         0.00000000
  24        -0.06987304
  25         0.00000000
  26         0.00000000
  27         0.00000000
  28        -0.00000000
  29        -0.00000000
  30        -0.00000000
Sym=     4a  
Ene=    -0.7824
Spin= Alpha
Occup=    2.00000
   1         0.08739827
   2        -0.24725023
   3        -0.24156291
   4        -0.00000000
   5        -0.00000000
   6         0.47392380
   7        -0.00000000
   8        -0.00000000
   9         0.30554035
  10        -0.00000000
  11        -0.00000000
  12        -0.00000000
  13        -0.00000000
  14         0.00000000
  15        -0.00000000
  16        -0.16389976
  17         0.22945857
  18         0.30189959
  19        -0.00000000
  20         0.00000000
  21         0.07167960
  22         0.00000000
  23         0.00000000
  24         0.05112892
  25         0.00000000
  26         0.00000000
  27         0.00000000
  28        -0.00000000
  29         0.00000000
  30        -0.00000000
Sym=     5a  
Ene=    -0.7322
Spin= Alpha
Occup=    2.00000
   1         0.00000000
   2         0.00000000
   3        -0.00000000
   4         0.02061360
   5         0.55839626
   6         0.00000000
   7         0.01328966
   8         0.36000005
   9        -0.00000000
  10         0.00000000
  11         0.00000000
  12         0.00000000
  13        -0.00000000
  14        -0.00000000
  15        -0.00000000
  16        -0.00000000
  17         0.00000000
  18         0.00000000
  19         0.00930278
  20         0.25200038
  21        -0.00000000
  22         0.00663566
  23         0.17975158
  24        -0.00000000
  25        -0.00000000
  26         0.00000000
  27        -0.00000000
  28        -0.00000000
  29        -0.00000000
  30         0.00000000
Sym=     6a  
Ene=    -0.7322
Spin= Alpha
Occup=    2.00000
   1         0.00000000
   2         0.00000000
   3         0.00000000
   4         0.55839626
   5        -0.02061360
   6         0.00000000
   7         0.36000005
   8        -0.01328966
   9         0.00000000
  10         0.00000000
  11        -0.00000000
  12        -0.00000000
  13        -0.00000000
  14        -0.00000000
  15         0.00000000
  16        -0.00000000
  17         0.00000000
  18        -0.00000000
  19         0.25200038
  20        -0.00930278
  21        -0.00000000
  22         0.17975158
  23        -0.00663566
  24         0.00000000
  25        -0.00000000
  26         0.00000000
  27         0.00000000
  28        -0.00000000
  29         0.00000000
  30         0.00000000
Sym=     7a  
Ene=    -0.4894
Spin= Alpha
Occup=    2.00000
   1         0.01269812
   2         0.02914681
   3         0.02792694
   4        -0.00000000
   5         0.00000000
   6        -0.38963940
   7        -0.00000000
   8        -0.00000000
   9        -0.25120188
  10         0.00000000
  11         0.00000000
  12        -0.00000000
  13        -0.00000000
  14        -0.00000000
  15        -0.00000000
  16        -0.08694088
  17         0.30281612
  18         0.39446247
  19         0.00000000
  20         0.00000000
  21         0.41674659
  22         0.00000000
  23         0.00000000
  24         0.29726496
  25        -0.00000000
  26        -0.00000000
  27        -0.00000000
  28         0.00000000
  29        -0.00000000
  30        -0.00000000
Sym=     8a  
Ene=    -0.3272
Spin= Alpha
Occup=    0.00000
   1         0.00000000
   2         0.00000000
   3        -0.00000000
   4        -0.26158217
   5        -0.40840541
   6         0.00000000
   7        -0.16864294
   8        -0.26330039
   9        -0.00000000
  10         0.00000000
  11         0.00000000
  12         0.00000000
  13         0.00000000
  14         0.00000000
  15         0.00000000
  16         0.00000000
  17        -0.00000000
  18         0.00000000
  19         0.35066733
  20         0.54749310
  21         0.00000000
  22         0.25013067
  23         0.39052630
  24        -0.00000000
  25        -0.00000000
  26         0.00000000
  27        -0.00000000
  28         0.00000000
  29         0.00000000
  30         0.00000000
Sym=     9a  
Ene=    -0.3272
Spin= Alpha
Occup=    0.00000
   1        -0.00000000
   2        -0.00000000
   3         0.00000000
   4        -0.40840541
   5         0.26158217
   6        -0.00000000
   7        -0.26330039
   8         0.16864294
   9         0.00000000
  10        -0.00000000
  11        -0.00000000
  12        -0.00000000
  13        -0.00000000
  14         0.00000000
  15         0.00000000
  16         0.00000000
  17        -0.00000000
  18        -0.00000000
  19         0.54749310
  20        -0.35066733
  21        -0.00000000
  22         0.39052630
  23        -0.25013067
  24         0.00000000
  25        -0.00000000
  26         0.00000000
  27         0.00000000
  28        -0.00000000
  29         0.00000000
  30        -0.00000000
Sym=    10a  
Ene=    -0.1222
Spin= Alpha
Occup=    0.00000
   1        -0.12569409
   2         0.72263938
   3         0.70291638
   4        -0.00000000
   5        -0.00000000
   6         0.63247504
   7        -0.00000000
   8         0.00000000
   9         0.40775883
  10         0.00000000
  11         0.00000000
  12         0.00000000
  13         0.00000000
  14        -0.00000000
  15         0.00000000
  16         0.08665316
  17        -0.54179514
  18        -0.70366181
  19        -0.00000000
  20         0.00000000
  21         0.81230617
  22         0.00000000
  23        -0.00000000
  24         0.57941724
  25        -0.00000000
  26        -0.00000000
  27        -0.00000000
  28         0.00000000
  29        -0.00000000
  30         0.00000000
Sym=    11a  
Ene=     4.2187
Spin= Alpha
Occup=    0.00000
   1        -0.07000201
   2        -0.66608721
   3         3.88982094
   4         0.00000000
   5         0.00000000
   6        -0.07440307
   7         0.00000000
   8        -0.00000000
   9         1.16366757
  10        -0.20231555
  11        -0.20231555
  12         0.14682159
  13        -0.00000000
  14         0.00000000
  15         0.00000000
  16        -0.00971748
  17         0.16825967
  18        -3.30631624
  19         0.00000000
  20        -0.00000000
  21        -0.15133674
  22        -0.00000000
  23         0.00000000
  24         2.33338546
  25         0.38658545
  26         0.38658545
  27        -0.14319197
  28        -0.00000000
  29         0.00000000
  30        -0.00000000
Sym=    12a  
Ene=     4.4225
Spin= Alpha
Occup=    0.00000
   1        -0.02217783
   2        -0.22764231
   3         1.35800047
   4         0.00000000
   5         0.00000000
   6        -0.00479655
   7        -0.00000000
   8        -0.00000000
   9         0.79148336
  10        -0.10959769
  11        -0.10959769
  12         0.17786191
  13        -0.00000000
  14         0.00000000
  15         0.00000000
  16        -0.07889243
  17        -0.86795961
  18         0.58964089
  19        -0.00000000
  20        -0.00000000
  21        -0.23533371
  22         0.00000000
  23         0.00000000
  24         1.11492577
  25        -0.33584565
  26        -0.33584565
  27        -0.63129400
  28        -0.00000000
  29        -0.00000000
  30         0.00000000
Sym=    13a  
Ene=     4.7634
Spin= Alpha
Occup=    0.00000
   1         0.00000000
   2         0.00000000
   3        -0.00000000
   4         0.04868714
   5         0.07986290
   6        -0.00000000
   7        -0.28959927
   8        -0.47503788
   9        -0.00000000
  10         0.00000000
  11         0.00000000
  12         0.00000000
  13        -0.00000000
  14        -0.14171521
  15        -0.23245947
  16         0.00000000
  17         0.00000000
  18         0.00000000
  19        -0.44757085
  20        -0.73416312
  21         0.00000000
  22         0.70082831
  23         1.14958850
  24        -0.00000000
  25         0.00000000
  26        -0.00000000
  27         0.00000000
  28        -0.00000000
  29        -0.06707163
  30        -0.11001950
Sym=    14a  
Ene=     4.7634
Spin= Alpha
Occup=    0.00000
   1        -0.00000000
   2        -0.00000000
   3         0.00000000
   4         0.07986290
   5        -0.04868714
   6        -0.00000000
   7        -0.47503788
   8         0.28959927
   9         0.00000000
  10        -0.00000000
  11        -0.00000000
  12        -0.00000000
  13         0.00000000
  14        -0.23245947
  15         0.14171521
  16        -0.00000000
  17        -0.00000000
  18        -0.00000000
  19        -0.73416312
  20         0.44757085
  21        -0.00000000
  22         1.14958850
  23        -0.70082831
  24         0.00000000
  25         0.00000000
  26         0.00000000
  27        -0.00000000
  28         0.00000000
  29        -0.11001950
  30         0.06707163
Sym=    15a  
Ene=     5.0172
Spin= Alpha
Occup=    0.00000
   1         0.15160872
   2         1.41327358
   3        -4.01842472
   4         0.00000000
   5        -0.00000000
   6        -0.24043967
   7        -0.00000000
   8         0.00000000
   9         0.06581950
  10         0.58386659
  11         0.58386659
  12         1.04473852
  13        -0.00000000
  14        -0.00000000
  15         0.00000000
  16        -0.03617207
  17        -0.28186315
  18         1.32352233
  19         0.00000000
  20         0.00000000
  21         0.24839274
  22        -0.00000000
  23        -0.00000000
  24        -0.98624779
  25         0.19558910
  26         0.19558910
  27        -0.39056344
  28        -0.00000000
  29         0.00000000
  30         0.00000000
Sym=    16a  
Ene=     5.5465
Spin= Alpha
Occup=    0.00000
   1        -0.08593742
   2        -0.93822666
   3         3.86102529
   4        -0.00000000
   5        -0.00000000
   6        -0.36726778
   7         0.00000000
   8         0.00000000
   9         2.06538048
  10        -0.14756981
  11        -0.14756981
  12        -0.40849096
  13        -0.00000000
  14        -0.00000000
  15        -0.00000000
  16        -0.04696301
  17        -0.47983828
  18        -2.30745221
  19         0.00000000
  20         0.00000000
  21         0.75329868
  22        -0.00000000
  23        -0.00000000
  24         0.94329546
  25         0.10543532
  26         0.10543532
  27        -0.27207533
  28        -0.00000000
  29         0.00000000
  30         0.00000000
Sym=    17a  
Ene=     5.5928
Spin= Alpha
Occup=    0.00000
   1         0.00000000
   2         0.00000000
   3        -0.00000000
   4         0.00000000
   5        -0.00000000
   6         0.00000000
   7        -0.00000000
   8         0.00000000
   9        -0.00000000
  10        -0.56528670
  11         0.56528670
  12         0.00000000
  13         0.00000000
  14         0.00000000
  15         0.00000000
  16         0.00000000
  17         0.00000000
  18         0.00000000
  19        -0.00000000
  20        -0.00000000
  21        -0.00000000
  22         0.00000000
  23         0.00000000
  24        -0.00000000
  25        -0.56528670
  26         0.56528670
  27         0.00000000
  28         0.00000000
  29        -0.00000000
  30        -0.00000000
Sym=    18a  
Ene=     5.5928
Spin= Alpha
Occup=    0.00000
   1        -0.00000000
   2        -0.00000000
   3         0.00000000
   4        -0.00000000
   5        -0.00000000
   6        -0.00000000
   7         0.00000000
   8         0.00000000
   9         0.00000000
  10        -0.00000000
  11        -0.00000000
  12        -0.00000000
  13         0.65273686
  14        -0.00000000
  15        -0.00000000
  16        -0.00000000
  17        -0.00000000
  18        -0.00000000
  19        -0.00000000
  20        -0.00000000
  21         0.00000000
  22        -0.00000000
  23        -0.00000000
  24         0.00000000
  25         0.00000000
  26         0.00000000
  27        -0.00000000
  28         0.65273686
  29         0.00000000
  30         0.00000000
Sym=    19a  
Ene=     5.7003
Spin= Alpha
Occup=    0.00000
   1         0.00000000
   2         0.00000000
   3        -0.00000000
   4        -0.09653151
   5        -0.33386472
   6         0.00000000
   7         0.22442036
   8         0.77618224
   9        -0.00000000
  10        -0.00000000
  11         0.00000000
  12         0.00000000
  13        -0.00000000
  14        -0.10370151
  15        -0.35866296
  16         0.00000000
  17         0.00000000
  18         0.00000000
  19         0.02425195
  20         0.08387800
  21        -0.00000000
  22        -0.10353522
  23        -0.35808785
  24        -0.00000000
  25        -0.00000000
  26         0.00000000
  27         0.00000000
  28        -0.00000000
  29         0.19012272
  30         0.65756013
Sym=    20a  
Ene=     5.7003
Spin= Alpha
Occup=    0.00000
   1         0.00000000
   2         0.00000000
   3        -0.00000000
   4        -0.33386472
   5         0.09653151
   6         0.00000000
   7         0.77618224
   8        -0.22442036
   9        -0.00000000
  10        -0.00000000
  11         0.00000000
  12         0.00000000
  13         0.00000000
  14        -0.35866296
  15         0.10370151
  16         0.00000000
  17         0.00000000
  18         0.00000000
  19         0.08387800
  20        -0.02425195
  21        -0.00000000
  22        -0.35808785
  23         0.10353522
  24        -0.00000000
  25        -0.00000000
  26         0.00000000
  27        -0.00000000
  28         0.00000000
  29         0.65756013
  30        -0.19012272
Sym=    21a  
Ene=     6.0942
Spin= Alpha
Occup=    0.00000
   1         0.00000000
   2         0.00000000
   3        -0.00000000
   4         0.00000000
   5         0.00000000
   6         0.00000000
   7        -0.00000000
   8        -0.00000000
   9        -0.00000000
  10         0.67359950
  11        -0.67359950
  12         0.00000000
  13        -0.00000000
  14        -0.00000000
  15        -0.00000000
  16         0.00000000
  17        -0.00000000
  18         0.00000000
  19         0.00000000
  20         0.00000000
  21        -0.00000000
  22         0.00000000
  23         0.00000000
  24        -0.00000000
  25        -0.67359950
  26         0.67359950
  27         0.00000000
  28         0.00000000
  29         0.00000000
  30         0.00000000
Sym=    22a  
Ene=     6.0942
Spin= Alpha
Occup=    0.00000
   1         0.00000000
   2         0.00000000
   3         0.00000000
   4         0.00000000
   5        -0.00000000
   6         0.00000000
   7        -0.00000000
   8        -0.00000000
   9        -0.00000000
  10        -0.00000000
  11         0.00000000
  12        -0.00000000
  13        -0.77780571
  14        -0.00000000
  15        -0.00000000
  16        -0.00000000
  17        -0.00000000
  18        -0.00000000
  19         0.00000000
  20        -0.00000000
  21        -0.00000000
  22        -0.00000000
  23         0.00000000
  24         0.00000000
  25         0.00000000
  26         0.00000000
  27         0.00000000
  28         0.77780571
  29         0.00000000
  30        -0.00000000
Sym=    23a  
Ene=     6.3952
Spin= Alpha
Occup=    0.00000
   1         0.00000000
   2         0.00000000
   3        -0.00000000
   4        -0.27212766
   5         0.71878238
   6         0.00000000
   7         0.39198606
   8        -1.03536948
   9         0.00000000
  10        -0.00000000
  11         0.00000000
  12         0.00000000
  13         0.00000000
  14         0.19936967
  15        -0.52660361
  16        -0.00000000
  17        -0.00000000
  18         0.00000000
  19        -0.16926090
  20         0.44707602
  21         0.00000000
  22        -0.06101923
  23         0.16117269
  24        -0.00000000
  25         0.00000000
  26        -0.00000000
  27        -0.00000000
  28         0.00000000
  29        -0.00623285
  30         0.01646311
Sym=    24a  
Ene=     6.3952
Spin= Alpha
Occup=    0.00000
   1         0.00000000
   2         0.00000000
   3         0.00000000
   4         0.71878238
   5         0.27212766
   6         0.00000000
   7        -1.03536948
   8        -0.39198606
   9        -0.00000000
  10        -0.00000000
  11         0.00000000
  12        -0.00000000
  13         0.00000000
  14        -0.52660361
  15        -0.19936967
  16        -0.00000000
  17        -0.00000000
  18         0.00000000
  19         0.44707602
  20         0.16926090
  21        -0.00000000
  22         0.16117269
  23         0.06101923
  24        -0.00000000
  25         0.00000000
  26        -0.00000000
  27         0.00000000
  28         0.00000000
  29         0.01646311
  30         0.00623285
Sym=    25a  
Ene=     7.0302
Spin= Alpha
Occup=    0.00000
   1         0.00000000
   2        -0.00000000
   3         0.00000000
   4         0.04518644
   5         0.35042422
   6        -0.00000000
   7         0.01594594
   8         0.12366196
   9         0.00000000
  10        -0.00000000
  11        -0.00000000
  12         0.00000000
  13         0.00000000
  14         0.13276059
  15         1.02956828
  16        -0.00000000
  17        -0.00000000
  18         0.00000000
  19        -0.05557320
  20        -0.43097430
  21         0.00000000
  22        -0.00361703
  23        -0.02805032
  24        -0.00000000
  25         0.00000000
  26        -0.00000000
  27         0.00000000
  28         0.00000000
  29         0.13595756
  30         1.05436104
Sym=    26a  
Ene=     7.0302
Spin= Alpha
Occup=    0.00000
   1         0.00000000
   2         0.00000000
   3        -0.00000000
   4         0.35042422
   5        -0.04518644
   6        -0.00000000
   7         0.12366196
   8        -0.01594594
   9        -0.00000000
  10         0.00000000
  11         0.00000000
  12        -0.00000000
  13         0.00000000
  14         1.02956828
  15        -0.13276059
  16         0.00000000
  17         0.00000000
  18         0.00000000
  19        -0.43097430
  20         0.05557320
  21        -0.00000000
  22        -0.02805032
  23         0.00361703
  24        -0.00000000
  25         0.00000000
  26        -0.00000000
  27        -0.00000000
  28         0.00000000
  29         1.05436104
  30        -0.13595756
Sym=    27a  
Ene=     7.2417
Spin= Alpha
Occup=    0.00000
   1        -0.07259564
   2        -0.87867051
   3         2.29905339
   4         0.00000000
   5        -0.00000000
   6        -0.43950471
   7         0.00000000
   8         0.00000000
   9         1.60606652
  10        -0.58527271
  11        -0.58527271
  12         0.81610752
  13         0.00000000
  14         0.00000000
  15        -0.00000000
  16        -0.13563750
  17        -1.13939020
  18        -0.97929402
  19        -0.00000000
  20         0.00000000
  21         0.68487909
  22         0.00000000
  23        -0.00000000
  24         0.29117978
  25        -0.28581494
  26        -0.28581494
  27         0.74970047
  28         0.00000000
  29         0.00000000
  30        -0.00000000
Sym=    28a  
Ene=     8.6842
Spin= Alpha
Occup=    0.00000
   1        -0.08142961
   2        -0.24217233
   3         3.13402878
   4         0.00000000
   5         0.00000000
   6         0.80037475
   7         0.00000000
   8        -0.00000000
   9         1.24130540
  10        -0.78424377
  11        -0.78424377
  12         1.00981606
  13        -0.00000000
  14         0.00000000
  15         0.00000000
  16        -0.06848445
  17        -1.62107225
  18        -1.29729700
  19         0.00000000
  20        -0.00000000
  21         1.40679777
  22        -0.00000000
  23         0.00000000
  24         0.59495402
  25         0.61642614
  26         0.61642614
  27        -0.95737269
  28        -0.00000000
  29         0.00000000
  30        -0.00000000
Sym=    29a  
Ene=    13.1230
Spin= Alpha
Occup=    0.00000
   1        -0.13010297
   2        -0.12191816
   3         0.60518112
   4        -0.00000000
   5         0.00000000
   6        -0.42617908
   7         0.00000000
   8        -0.00000000
   9        -0.22979822
  10        -0.33372630
  11        -0.33372630
  12        -0.71981363
  13        -0.00000000
  14         0.00000000
  15        -0.00000000
  16         0.44576131
  17        -2.97848964
  18        -0.43367690
  19         0.00000000
  20         0.00000000
  21        -0.60210104
  22        -0.00000000
  23         0.00000000
  24         0.09565488
  25         1.55969327
  26         1.55969327
  27         2.00343334
  28        -0.00000000
  29         0.00000000
  30        -0.00000000
Sym=    30a  
Ene=    13.6370
Spin= Alpha
Occup=    0.00000
   1         0.48789385
   2        -0.04484918
   3        -4.98733067
   4         0.00000000
   5        -0.00000000
   6         0.38007921
   7        -0.00000000
   8         0.00000000
   9        -1.11590191
  10         1.62390702
  11         1.62390702
  12         1.50256486
  13         0.00000000
  14        -0.00000000
  15         0.00000000
  16         0.13641604
  17        -0.94606013
  18         1.78089403
  19        -0.00000000
  20        -0.00000000
  21         0.21634151
  22         0.00000000
  23        -0.00000000
  24        -1.09578720
  25         0.44348031
  26         0.44348031
  27         0.34427125
  28         0.00000000
  29        -0.00000000
  30        -0.00000000
