[Molden Format]
[N_ATOMS]
                     2
[ATOMS] (AU)
O1          1      8           0.00000000      0.00000000      0.00000000
C2          2      6           0.00000000      0.00000000      2.09249374
[CHARGE] (MULLIKEN)
 -0.260750043134037     
  0.260750043133938     
[GTO] (AU)
   1
   s   6
  0.548467170E+04  0.183109981E-02
  0.825234950E+03  0.139500985E-01
  0.188046960E+03  0.684450927E-01
  0.529645000E+02  0.232714275E+00
  0.168975700E+02  0.470192950E+00
  0.579963530E+01  0.358520862E+00
   s   3
  0.155396160E+02 -0.110777504E+00
  0.359993360E+01 -0.148026305E+00
  0.101376180E+01  0.113076704E+01
   s   1
  0.270005800E+00  0.100000000E+01
   p   3
  0.155396160E+02  0.708742995E-01
  0.359993360E+01  0.339752798E+00
  0.101376180E+01  0.727158595E+00
   p   1
  0.270005800E+00  0.100000000E+01
   d   1
  0.800000000E+00  0.100000000E+01
 
   2
   s   6
  0.304752490E+04  0.183470016E-02
  0.457369510E+03  0.140373012E-01
  0.103948690E+03  0.688426061E-01
  0.292101550E+02  0.232184421E+00
  0.928666300E+01  0.467941342E+00
  0.316392700E+01  0.362312032E+00
   s   3
  0.786827240E+01 -0.119332409E+00
  0.188128850E+01 -0.160854212E+00
  0.544249300E+00  0.114345648E+01
   s   1
  0.168714400E+00  0.100000000E+01
   p   3
  0.786827240E+01  0.689990956E-01
  0.188128850E+01  0.316423980E+00
  0.544249300E+00  0.744308252E+00
   p   1
  0.168714400E+00  0.100000000E+01
   d   1
  0.800000000E+00  0.100000000E+01
 
[MO]
Sym=     1a  
Ene=   -20.6750
Spin= Alpha
Occup=    2.00000
   1         0.99465434
   2         0.02112722
   3         0.00537025
   4        -0.00000000
   5         0.00000000
   6         0.00177051
   7        -0.00000000
   8         0.00000000
   9         0.00050294
  10        -0.00425371
  11        -0.00425371
  12        -0.00321191
  13        -0.00000000
  14        -0.00000000
  15         0.00000000
  16        -0.00000653
  17        -0.00004412
  18        -0.00102599
  19        -0.00000000
  20         0.00000000
  21         0.00057656
  22        -0.00000000
  23         0.00000000
  24         0.00062872
  25         0.00009386
  26         0.00009386
  27        -0.00092078
  28         0.00000000
  29         0.00000000
  30        -0.00000000
Sym=     2a  
Ene=   -11.3530
Spin= Alpha
Occup=    2.00000
   1        -0.00080650
   2         0.00051467
   3        -0.00410825
   4         0.00000000
   5         0.00000000
   6         0.00018802
   7         0.00000000
   8         0.00000000
   9        -0.00339132
  10         0.00017190
  11         0.00017190
  12        -0.00066030
  13         0.00000000
  14         0.00000000
  15         0.00000000
  16         0.99590675
  17         0.02576681
  18        -0.00154310
  19         0.00000000
  20         0.00000000
  21        -0.00442231
  22         0.00000000
  23         0.00000000
  24        -0.00084058
  25        -0.00273787
  26        -0.00273787
  27         0.00028804
  28         0.00000000
  29        -0.00000000
  30        -0.00000000
Sym=     3a  
Ene=    -1.5339
Spin= Alpha
Occup=    2.00000
   1        -0.20131884
   2         0.44573507
   3         0.34416226
   4         0.00000000
   5        -0.00000000
   6         0.16706730
   7         0.00000000
   8        -0.00000000
   9         0.03932442
  10        -0.00180690
  11        -0.00180690
  12         0.02141240
  13        -0.00000000
  14         0.00000000
  15        -0.00000000
  16        -0.11736245
  17         0.21887975
  18         0.04275305
  19         0.00000000
  20        -0.00000000
  21        -0.21595291
  22         0.00000000
  23        -0.00000000
  24         0.01451878
  25        -0.02243928
  26        -0.02243928
  27         0.03780592
  28         0.00000000
  29        -0.00000000
  30         0.00000000
Sym=     4a  
Ene=    -0.7983
Spin= Alpha
Occup=    2.00000
   1         0.10726716
   2        -0.25786798
   3        -0.40269013
   4        -0.00000000
   5         0.00000000
   6         0.50905313
   7        -0.00000000
   8         0.00000000
   9         0.25004351
  10        -0.00994672
  11        -0.00994672
  12         0.02512892
  13         0.00000000
  14        -0.00000000
  15         0.00000000
  16        -0.12678291
  17         0.28090894
  18         0.16838201
  19        -0.00000000
  20         0.00000000
  21        -0.12673368
  22        -0.00000000
  23         0.00000000
  24         0.02485961
  25        -0.01391330
  26        -0.01391330
  27         0.01240105
  28         0.00000000
  29         0.00000000
  30        -0.00000000
Sym=     5a  
Ene=    -0.6422
Spin= Alpha
Occup=    2.00000
   1        -0.00000000
   2         0.00000000
   3         0.00000000
   4         0.03938602
   5         0.55431771
   6        -0.00000000
   7         0.02602635
   8         0.36629411
   9        -0.00000000
  10         0.00000000
  11         0.00000000
  12        -0.00000000
  13        -0.00000000
  14         0.00294233
  15         0.04141027
  16        -0.00000000
  17         0.00000000
  18         0.00000000
  19         0.02039163
  20         0.28699112
  21         0.00000000
  22         0.00798326
  23         0.11235610
  24         0.00000000
  25         0.00000000
  26         0.00000000
  27        -0.00000000
  28        -0.00000000
  29        -0.00335933
  30        -0.04727906
Sym=     6a  
Ene=    -0.6422
Spin= Alpha
Occup=    2.00000
   1        -0.00000000
   2         0.00000000
   3         0.00000000
   4        -0.55431771
   5         0.03938602
   6        -0.00000000
   7        -0.36629411
   8         0.02602635
   9        -0.00000000
  10         0.00000000
  11         0.00000000
  12        -0.00000000
  13         0.00000000
  14        -0.04141027
  15         0.00294233
  16         0.00000000
  17        -0.00000000
  18        -0.00000000
  19        -0.28699112
  20         0.02039163
  21        -0.00000000
  22        -0.11235610
  23         0.00798326
  24        -0.00000000
  25         0.00000000
  26         0.00000000
  27         0.00000000
  28         0.00000000
  29         0.04727906
  30        -0.00335933
Sym=     7a  
Ene=    -0.5451
Spin= Alpha
Occup=    2.00000
   1         0.01630320
   2        -0.04107820
   3        -0.01902216
   4        -0.00000000
   5        -0.00000000
   6        -0.24567866
   7        -0.00000000
   8        -0.00000000
   9        -0.14066035
  10         0.00428449
  11         0.00428449
  12        -0.01158695
  13        -0.00000000
  14        -0.00000000
  15        -0.00000000
  16        -0.14333666
  17         0.28071053
  18         0.61611690
  19        -0.00000000
  20        -0.00000000
  21         0.44567057
  22        -0.00000000
  23        -0.00000000
  24         0.15880614
  25         0.00963906
  26         0.00963906
  27        -0.03718988
  28        -0.00000000
  29         0.00000000
  30         0.00000000
Sym=     8a  
Ene=     0.1708
Spin= Alpha
Occup=    0.00000
   1         0.00000000
   2        -0.00000000
   3        -0.00000000
   4         0.16112446
   5         0.31310004
   6        -0.00000000
   7         0.23545142
   8         0.45753358
   9        -0.00000000
  10         0.00000000
  11         0.00000000
  12        -0.00000000
  13         0.00000000
  14        -0.00277959
  15        -0.00540134
  16        -0.00000000
  17         0.00000000
  18         0.00000000
  19        -0.19907242
  20        -0.38684123
  21        -0.00000000
  22        -0.35596625
  23        -0.69172024
  24        -0.00000000
  25        -0.00000000
  26        -0.00000000
  27         0.00000000
  28         0.00000000
  29        -0.00503597
  30        -0.00978600
Sym=     9a  
Ene=     0.1708
Spin= Alpha
Occup=    0.00000
   1        -0.00000000
   2        -0.00000000
   3         0.00000000
   4        -0.31310004
   5         0.16112446
   6         0.00000000
   7        -0.45753358
   8         0.23545142
   9         0.00000000
  10        -0.00000000
  11        -0.00000000
  12        -0.00000000
  13        -0.00000000
  14         0.00540134
  15        -0.00277959
  16         0.00000000
  17         0.00000000
  18        -0.00000000
  19         0.38684123
  20        -0.19907242
  21         0.00000000
  22         0.69172024
  23        -0.35596625
  24         0.00000000
  25        -0.00000000
  26         0.00000000
  27         0.00000000
  28         0.00000000
  29         0.00978600
  30        -0.00503597
Sym=    10a  
Ene=     0.4097
Spin= Alpha
Occup=    0.00000
   1        -0.10672054
   2         0.06881711
   3         2.54705911
   4        -0.00000000
   5        -0.00000000
   6         0.06496897
   7         0.00000000
   8         0.00000000
   9         0.89708983
  10        -0.07462394
  11        -0.07462394
  12         0.02221426
  13         0.00000000
  14        -0.00000000
  15         0.00000000
  16         0.02496018
  17         0.08331313
  18        -2.25608831
  19         0.00000000
  20        -0.00000000
  21         0.09766775
  22        -0.00000000
  23        -0.00000000
  24         2.04749155
  25         0.01291854
  26         0.01291854
  27        -0.00740992
  28        -0.00000000
  29         0.00000000
  30         0.00000000
Sym=    11a  
Ene=     0.7335
Spin= Alpha
Occup=    0.00000
   1         0.00000000
   2        -0.00000000
   3         0.00000000
   4        -0.03522223
   5        -0.00007319
   6        -0.00000000
   7        -0.00396408
   8        -0.00000824
   9         0.00000000
  10        -0.00000000
  11        -0.00000000
  12         0.00000000
  13         0.00000000
  14        -0.10549511
  15        -0.00021922
  16         0.00000000
  17        -0.00000000
  18        -0.00000000
  19        -1.04531809
  20        -0.00217216
  21        -0.00000000
  22         1.06662910
  23         0.00221645
  24         0.00000000
  25         0.00000000
  26         0.00000000
  27         0.00000000
  28         0.00000000
  29         0.02333808
  30         0.00004850
Sym=    12a  
Ene=     0.7335
Spin= Alpha
Occup=    0.00000
   1        -0.00000000
   2        -0.00000000
   3         0.00000000
   4         0.00007319
   5        -0.03522223
   6        -0.00000000
   7         0.00000824
   8        -0.00396408
   9         0.00000000
  10        -0.00000000
  11         0.00000000
  12        -0.00000000
  13        -0.00000000
  14         0.00021922
  15        -0.10549511
  16         0.00000000
  17        -0.00000000
  18        -0.00000000
  19         0.00217216
  20        -1.04531809
  21        -0.00000000
  22        -0.00221645
  23         1.06662910
  24         0.00000000
  25         0.00000000
  26        -0.00000000
  27         0.00000000
  28         0.00000000
  29        -0.00004850
  30         0.02333808
Sym=    13a  
Ene=     0.7602
Spin= Alpha
Occup=    0.00000
   1        -0.00755157
   2         0.08847716
   3         0.17841378
   4         0.00000000
   5         0.00000000
   6        -0.13229367
   7         0.00000000
   8        -0.00000000
   9         0.31192934
  10         0.01879293
  11         0.01879293
  12         0.06077748
  13        -0.00000000
  14         0.00000000
  15        -0.00000000
  16        -0.04528938
  17         1.08785274
  18        -1.62436861
  19        -0.00000000
  20         0.00000000
  21         0.61846996
  22        -0.00000000
  23         0.00000000
  24        -0.42904219
  25         0.12302721
  26         0.12302721
  27         0.08562668
  28         0.00000000
  29         0.00000000
  30        -0.00000000
Sym=    14a  
Ene=     0.9973
Spin= Alpha
Occup=    0.00000
   1        -0.02372282
   2         0.49582685
   3        -0.36208758
   4         0.00000000
   5        -0.00000000
   6        -0.36910461
   7        -0.00000000
   8         0.00000000
   9         1.38475049
  10         0.20186462
  11         0.20186462
  12         0.14431650
  13        -0.00000000
  14         0.00000000
  15         0.00000000
  16        -0.02662984
  17        -0.95454559
  18         0.16114539
  19        -0.00000000
  20         0.00000000
  21         0.57527242
  22         0.00000000
  23        -0.00000000
  24        -0.20009449
  25        -0.01571741
  26        -0.01571741
  27        -0.14996498
  28         0.00000000
  29         0.00000000
  30        -0.00000000
Sym=    15a  
Ene=     1.1308
Spin= Alpha
Occup=    0.00000
   1        -0.07457585
   2        -0.17445287
   3         0.81365068
   4         0.00000000
   5        -0.00000000
   6         0.66073611
   7        -0.00000000
   8         0.00000000
   9        -0.11759912
  10        -0.03167108
  11        -0.03167108
  12        -0.44212257
  13         0.00000000
  14        -0.00000000
  15         0.00000000
  16         0.08610625
  17        -0.36909853
  18        -0.03017377
  19        -0.00000000
  20         0.00000000
  21         0.70432417
  22         0.00000000
  23        -0.00000000
  24        -0.22406850
  25        -0.15366473
  26        -0.15366473
  27         0.32910294
  28         0.00000000
  29        -0.00000000
  30        -0.00000000
Sym=    16a  
Ene=     1.2066
Spin= Alpha
Occup=    0.00000
   1        -0.00000000
   2        -0.00000000
   3         0.00000000
   4         0.37045183
   5         0.86634994
   6         0.00000000
   7        -0.51595823
   8        -1.20663562
   9         0.00000000
  10        -0.00000000
  11        -0.00000000
  12        -0.00000000
  13         0.00000000
  14         0.00982624
  15         0.02297994
  16         0.00000000
  17        -0.00000000
  18        -0.00000000
  19        -0.05869692
  20        -0.13727041
  21         0.00000000
  22         0.23731645
  23         0.55499547
  24         0.00000000
  25         0.00000000
  26         0.00000000
  27        -0.00000000
  28         0.00000000
  29        -0.04373471
  30        -0.10227932
Sym=    17a  
Ene=     1.2066
Spin= Alpha
Occup=    0.00000
   1        -0.00000000
   2         0.00000000
   3        -0.00000000
   4        -0.86634994
   5         0.37045183
   6        -0.00000000
   7         1.20663562
   8        -0.51595823
   9         0.00000000
  10        -0.00000000
  11         0.00000000
  12         0.00000000
  13         0.00000000
  14        -0.02297994
  15         0.00982624
  16        -0.00000000
  17        -0.00000000
  18         0.00000000
  19         0.13727041
  20        -0.05869692
  21         0.00000000
  22        -0.55499547
  23         0.23731645
  24        -0.00000000
  25        -0.00000000
  26         0.00000000
  27        -0.00000000
  28         0.00000000
  29         0.10227932
  30        -0.04373471
Sym=    18a  
Ene=     1.6182
Spin= Alpha
Occup=    0.00000
   1        -0.10260581
   2        -1.82468080
   3         5.96944560
   4        -0.00000000
   5        -0.00000000
   6        -0.22948795
   7         0.00000000
   8         0.00000000
   9         1.85653845
  10        -0.40264157
  11        -0.40264157
  12        -0.55777475
  13         0.00000000
  14         0.00000000
  15         0.00000000
  16        -0.05692115
  17        -0.21665577
  18        -3.19074088
  19         0.00000000
  20         0.00000000
  21         0.13098597
  22        -0.00000000
  23        -0.00000000
  24         1.99676462
  25         0.14392254
  26         0.14392254
  27        -0.23708202
  28         0.00000000
  29         0.00000000
  30        -0.00000000
Sym=    19a  
Ene=     1.7426
Spin= Alpha
Occup=    0.00000
   1        -0.00000000
   2        -0.00000000
   3         0.00000000
   4         0.00000000
   5         0.00000000
   6        -0.00000000
   7        -0.00000000
   8         0.00000000
   9         0.00000000
  10        -0.52517087
  11         0.52517087
  12        -0.00000000
  13         0.00000000
  14         0.00000000
  15         0.00000000
  16        -0.00000000
  17        -0.00000000
  18        -0.00000000
  19        -0.00000000
  20        -0.00000000
  21         0.00000000
  22         0.00000000
  23        -0.00000000
  24         0.00000000
  25        -0.60349042
  26         0.60349042
  27        -0.00000000
  28         0.00000000
  29        -0.00000000
  30         0.00000000
Sym=    20a  
Ene=     1.7426
Spin= Alpha
Occup=    0.00000
   1         0.00000000
   2         0.00000000
   3        -0.00000000
   4         0.00000000
   5        -0.00000000
   6        -0.00000000
   7        -0.00000000
   8         0.00000000
   9        -0.00000000
  10         0.00000000
  11        -0.00000000
  12         0.00000000
  13         0.60641509
  14         0.00000000
  15         0.00000000
  16         0.00000000
  17         0.00000000
  18         0.00000000
  19         0.00000000
  20         0.00000000
  21        -0.00000000
  22        -0.00000000
  23        -0.00000000
  24        -0.00000000
  25         0.00000000
  26        -0.00000000
  27        -0.00000000
  28         0.69685071
  29         0.00000000
  30        -0.00000000
Sym=    21a  
Ene=     1.8632
Spin= Alpha
Occup=    0.00000
   1         0.00000000
   2        -0.00000000
   3        -0.00000000
   4         0.22717308
   5         0.08080908
   6        -0.00000000
   7         0.00831853
   8         0.00295903
   9        -0.00000000
  10         0.00000000
  11         0.00000000
  12         0.00000000
  13         0.00000000
  14        -0.53267946
  15        -0.18948256
  16         0.00000000
  17        -0.00000000
  18         0.00000000
  19         0.28311327
  20         0.10070790
  21         0.00000000
  22        -0.12666201
  23        -0.04505569
  24        -0.00000000
  25        -0.00000000
  26         0.00000000
  27         0.00000000
  28         0.00000000
  29         0.59526191
  30         0.21174414
Sym=    22a  
Ene=     1.8632
Spin= Alpha
Occup=    0.00000
   1        -0.00000000
   2        -0.00000000
   3         0.00000000
   4        -0.08080908
   5         0.22717308
   6        -0.00000000
   7        -0.00295903
   8         0.00831853
   9         0.00000000
  10        -0.00000000
  11        -0.00000000
  12        -0.00000000
  13         0.00000000
  14         0.18948256
  15        -0.53267946
  16         0.00000000
  17        -0.00000000
  18        -0.00000000
  19        -0.10070790
  20         0.28311327
  21         0.00000000
  22         0.04505569
  23        -0.12666201
  24         0.00000000
  25         0.00000000
  26        -0.00000000
  27         0.00000000
  28        -0.00000000
  29        -0.21174414
  30         0.59526191
Sym=    23a  
Ene=     2.2742
Spin= Alpha
Occup=    0.00000
   1         0.00000000
   2        -0.00000000
   3         0.00000000
   4         0.00000000
   5         0.00000000
   6         0.00000000
   7        -0.00000000
   8        -0.00000000
   9         0.00000000
  10        -0.70532326
  11         0.70532326
  12         0.00000000
  13         0.00000000
  14        -0.00000000
  15         0.00000000
  16         0.00000000
  17        -0.00000000
  18        -0.00000000
  19         0.00000000
  20         0.00000000
  21         0.00000000
  22        -0.00000000
  23        -0.00000000
  24         0.00000000
  25         0.63959726
  26        -0.63959726
  27         0.00000000
  28        -0.00000000
  29         0.00000000
  30         0.00000000
Sym=    24a  
Ene=     2.2742
Spin= Alpha
Occup=    0.00000
   1        -0.00000000
   2         0.00000000
   3         0.00000000
   4        -0.00000000
   5         0.00000000
   6         0.00000000
   7         0.00000000
   8        -0.00000000
   9        -0.00000000
  10        -0.00000000
  11         0.00000000
  12        -0.00000000
  13        -0.81443714
  14         0.00000000
  15         0.00000000
  16         0.00000000
  17        -0.00000000
  18        -0.00000000
  19        -0.00000000
  20         0.00000000
  21        -0.00000000
  22        -0.00000000
  23        -0.00000000
  24         0.00000000
  25         0.00000000
  26        -0.00000000
  27        -0.00000000
  28         0.73854330
  29         0.00000000
  30         0.00000000
Sym=    25a  
Ene=     2.8212
Spin= Alpha
Occup=    0.00000
   1         0.03851503
   2         0.91346546
   3        -1.05835063
   4        -0.00000000
   5        -0.00000000
   6         0.73927187
   7         0.00000000
   8         0.00000000
   9        -0.73843746
  10         0.34455357
  11         0.34455357
  12        -0.15674591
  13         0.00000000
  14        -0.00000000
  15        -0.00000000
  16         0.14251281
  17        -0.03169205
  18         0.09634007
  19        -0.00000000
  20        -0.00000000
  21         0.09791317
  22        -0.00000000
  23        -0.00000000
  24         0.06944919
  25         0.71785191
  26         0.71785191
  27        -0.92234883
  28        -0.00000000
  29         0.00000000
  30        -0.00000000
Sym=    26a  
Ene=     2.9766
Spin= Alpha
Occup=    0.00000
   1         0.00000000
   2         0.00000000
   3        -0.00000000
   4         0.10056962
   5         0.04922496
   6         0.00000000
   7         0.49942977
   8         0.24445163
   9        -0.00000000
  10         0.00000000
  11        -0.00000000
  12         0.00000000
  13         0.00000000
  14         1.01420712
  15         0.49641532
  16         0.00000000
  17        -0.00000000
  18         0.00000000
  19        -0.37386928
  20        -0.18299461
  21         0.00000000
  22        -0.27183864
  23        -0.13305454
  24        -0.00000000
  25         0.00000000
  26         0.00000000
  27        -0.00000000
  28        -0.00000000
  29         0.98437885
  30         0.48181553
Sym=    27a  
Ene=     2.9766
Spin= Alpha
Occup=    0.00000
   1         0.00000000
   2        -0.00000000
   3        -0.00000000
   4         0.04922496
   5        -0.10056962
   6        -0.00000000
   7         0.24445163
   8        -0.49942977
   9        -0.00000000
  10         0.00000000
  11         0.00000000
  12        -0.00000000
  13        -0.00000000
  14         0.49641532
  15        -1.01420712
  16         0.00000000
  17        -0.00000000
  18         0.00000000
  19        -0.18299461
  20         0.37386928
  21        -0.00000000
  22        -0.13305454
  23         0.27183864
  24        -0.00000000
  25        -0.00000000
  26        -0.00000000
  27         0.00000000
  28        -0.00000000
  29         0.48181553
  30        -0.98437885
Sym=    28a  
Ene=     3.3923
Spin= Alpha
Occup=    0.00000
   1        -0.03739161
   2        -0.39201623
   3         3.07164919
   4         0.00000000
   5        -0.00000000
   6         0.62702999
   7        -0.00000000
   8         0.00000000
   9         1.86856187
  10        -0.66584230
  11        -0.66584230
  12         1.62716938
  13         0.00000000
  14        -0.00000000
  15        -0.00000000
  16        -0.13967251
  17        -1.93046430
  18        -1.42227210
  19         0.00000000
  20        -0.00000000
  21         1.65010739
  22        -0.00000000
  23         0.00000000
  24         0.75365009
  25         0.36692667
  26         0.36692667
  27        -0.74979115
  28        -0.00000000
  29        -0.00000000
  30        -0.00000000
Sym=    29a  
Ene=     4.1208
Spin= Alpha
Occup=    0.00000
   1         0.53558658
   2         0.21469934
   3        -5.92317978
   4        -0.00000000
   5         0.00000000
   6         0.28192007
   7        -0.00000000
   8        -0.00000000
   9        -1.19714253
  10         1.82951066
  11         1.82951066
  12         1.59154054
  13        -0.00000000
  14         0.00000000
  15         0.00000000
  16         0.01329781
  17         0.17572020
  18         2.14644120
  19         0.00000000
  20        -0.00000000
  21         0.09590472
  22         0.00000000
  23         0.00000000
  24        -1.24222839
  25        -0.04936460
  26        -0.04936460
  27        -0.12778672
  28         0.00000000
  29        -0.00000000
  30         0.00000000
Sym=    30a  
Ene=     4.3094
Spin= Alpha
Occup=    0.00000
   1        -0.00033015
   2        -0.22829278
   3        -0.47340906
   4        -0.00000000
   5        -0.00000000
   6        -0.35336599
   7        -0.00000000
   8         0.00000000
   9        -0.39931843
  10         0.05044186
  11         0.05044186
  12        -0.18719579
  13         0.00000000
  14        -0.00000000
  15         0.00000000
  16         0.45035907
  17        -2.99843486
  18        -0.38103643
  19         0.00000000
  20         0.00000000
  21        -0.41710314
  22        -0.00000000
  23        -0.00000000
  24        -0.18675406
  25         1.63998308
  26         1.63998308
  27         2.15171521
  28        -0.00000000
  29        -0.00000000
  30        -0.00000000
