[Molden Format]
[N_ATOMS]
                     2
[ATOMS] (AU)
O1          1      8           0.00000000      0.00000000      0.00000000
C2          2      6           0.00000000      0.00000000      2.09249374
[CHARGE] (MULLIKEN)
 -0.122406848602877     
  0.122406848602774     
[GTO] (AU)
   1
   s   6
  0.548467170E+04  0.183109981E-02
  0.825234950E+03  0.139500985E-01
  0.188046960E+03  0.684450927E-01
  0.529645000E+02  0.232714275E+00
  0.168975700E+02  0.470192950E+00
  0.579963530E+01  0.358520862E+00
   s   3
  0.155396160E+02 -0.110777504E+00
  0.359993360E+01 -0.148026305E+00
  0.101376180E+01  0.113076704E+01
   s   1
  0.270005800E+00  0.100000000E+01
   p   3
  0.155396160E+02  0.708742995E-01
  0.359993360E+01  0.339752798E+00
  0.101376180E+01  0.727158595E+00
   p   1
  0.270005800E+00  0.100000000E+01
   d   1
  0.800000000E+00  0.100000000E+01
 
   2
   s   6
  0.304752490E+04  0.183470016E-02
  0.457369510E+03  0.140373012E-01
  0.103948690E+03  0.688426061E-01
  0.292101550E+02  0.232184421E+00
  0.928666300E+01  0.467941342E+00
  0.316392700E+01  0.362312032E+00
   s   3
  0.786827240E+01 -0.119332409E+00
  0.188128850E+01 -0.160854212E+00
  0.544249300E+00  0.114345648E+01
   s   1
  0.168714400E+00  0.100000000E+01
   p   3
  0.786827240E+01  0.689990956E-01
  0.188128850E+01  0.316423980E+00
  0.544249300E+00  0.744308252E+00
   p   1
  0.168714400E+00  0.100000000E+01
   d   1
  0.800000000E+00  0.100000000E+01
 
[MO]
Sym=     1a  
Ene=   -20.6770
Spin= Alpha
Occup=    1.00000
   1         0.99464393
   2         0.02126426
   3         0.00536630
   4        -0.00000000
   5         0.00000000
   6         0.00200456
   7        -0.00000000
   8         0.00000000
   9         0.00045731
  10        -0.00425624
  11        -0.00425624
  12        -0.00323076
  13        -0.00000000
  14         0.00000000
  15        -0.00000000
  16        -0.00000356
  17        -0.00002067
  18        -0.00110046
  19        -0.00000000
  20         0.00000000
  21         0.00063582
  22        -0.00000000
  23         0.00000000
  24         0.00062568
  25         0.00009192
  26         0.00009192
  27        -0.00106523
  28        -0.00000000
  29         0.00000000
  30        -0.00000000
Sym=     1a  
Ene=   -20.6770
Spin= Beta
Occup=    1.00000
   1         0.99464393
   2         0.02126426
   3         0.00536630
   4        -0.00000000
   5         0.00000000
   6         0.00200456
   7        -0.00000000
   8         0.00000000
   9         0.00045731
  10        -0.00425624
  11        -0.00425624
  12        -0.00323076
  13        -0.00000000
  14         0.00000000
  15        -0.00000000
  16        -0.00000356
  17        -0.00002067
  18        -0.00110046
  19        -0.00000000
  20         0.00000000
  21         0.00063582
  22        -0.00000000
  23         0.00000000
  24         0.00062568
  25         0.00009192
  26         0.00009192
  27        -0.00106523
  28        -0.00000000
  29         0.00000000
  30        -0.00000000
Sym=     2a  
Ene=   -11.3180
Spin= Alpha
Occup=    1.00000
   1        -0.00075349
   2         0.00034880
   3        -0.00201833
   4         0.00000002
   5        -0.00000004
   6         0.00038128
   7         0.00000001
   8        -0.00000002
   9        -0.00196387
  10        -0.00009861
  11        -0.00009861
  12         0.00010355
  13         0.00000000
  14         0.00000000
  15        -0.00000000
  16         0.99532745
  17         0.02741583
  18        -0.00224068
  19         0.00000002
  20        -0.00000003
  21        -0.00183605
  22         0.00000001
  23        -0.00000001
  24        -0.00049306
  25        -0.00317397
  26        -0.00317397
  27        -0.00141575
  28        -0.00000000
  29        -0.00000000
  30         0.00000000
Sym=     2a  
Ene=   -11.3180
Spin= Beta
Occup=    1.00000
   1        -0.00075349
   2         0.00034880
   3        -0.00201833
   4         0.00000002
   5        -0.00000004
   6         0.00038128
   7         0.00000001
   8        -0.00000002
   9        -0.00196387
  10        -0.00009861
  11        -0.00009861
  12         0.00010355
  13         0.00000000
  14         0.00000000
  15        -0.00000000
  16         0.99532745
  17         0.02741583
  18        -0.00224068
  19         0.00000002
  20        -0.00000003
  21        -0.00183605
  22         0.00000001
  23        -0.00000001
  24        -0.00049306
  25        -0.00317397
  26        -0.00317397
  27        -0.00141575
  28        -0.00000000
  29        -0.00000000
  30         0.00000000
Sym=     3a  
Ene=    -1.5182
Spin= Alpha
Occup=    1.00000
   1        -0.20234508
   2         0.45319156
   3         0.34269960
   4         0.00000039
   5        -0.00000060
   6         0.15638392
   7         0.00000023
   8        -0.00000035
   9         0.03218053
  10        -0.00112839
  11        -0.00112839
  12         0.02117094
  13         0.00000000
  14         0.00000003
  15        -0.00000005
  16        -0.11915843
  17         0.22017007
  18         0.05930595
  19         0.00000026
  20        -0.00000039
  21        -0.19909405
  22         0.00000012
  23        -0.00000019
  24         0.01679770
  25        -0.02033923
  26        -0.02033923
  27         0.03484245
  28        -0.00000000
  29        -0.00000003
  30         0.00000005
Sym=     3a  
Ene=    -1.5182
Spin= Beta
Occup=    1.00000
   1        -0.20234508
   2         0.45319156
   3         0.34269960
   4         0.00000039
   5        -0.00000060
   6         0.15638392
   7         0.00000023
   8        -0.00000035
   9         0.03218053
  10        -0.00112839
  11        -0.00112839
  12         0.02117094
  13         0.00000000
  14         0.00000003
  15        -0.00000005
  16        -0.11915843
  17         0.22017007
  18         0.05930595
  19         0.00000026
  20        -0.00000039
  21        -0.19909405
  22         0.00000012
  23        -0.00000019
  24         0.01679770
  25        -0.02033923
  26        -0.02033923
  27         0.03484245
  28        -0.00000000
  29        -0.00000003
  30         0.00000005
Sym=     4a  
Ene=    -0.7883
Spin= Alpha
Occup=    1.00000
   1         0.10487898
   2        -0.25331189
   3        -0.40986474
   4         0.00000123
   5        -0.00000186
   6         0.51351830
   7         0.00000074
   8        -0.00000113
   9         0.25389678
  10        -0.01053332
  11        -0.01053332
  12         0.02687304
  13        -0.00000000
  14         0.00000009
  15        -0.00000013
  16        -0.12482947
  17         0.26499291
  18         0.17148488
  19         0.00000070
  20        -0.00000106
  21        -0.14439897
  22         0.00000031
  23        -0.00000048
  24         0.01023345
  25        -0.01223901
  26        -0.01223901
  27         0.01334626
  28        -0.00000000
  29        -0.00000009
  30         0.00000014
Sym=     4a  
Ene=    -0.7883
Spin= Beta
Occup=    1.00000
   1         0.10487898
   2        -0.25331189
   3        -0.40986474
   4         0.00000123
   5        -0.00000186
   6         0.51351830
   7         0.00000074
   8        -0.00000113
   9         0.25389678
  10        -0.01053332
  11        -0.01053332
  12         0.02687304
  13        -0.00000000
  14         0.00000009
  15        -0.00000013
  16        -0.12482947
  17         0.26499291
  18         0.17148488
  19         0.00000070
  20        -0.00000106
  21        -0.14439897
  22         0.00000031
  23        -0.00000048
  24         0.01023345
  25        -0.01223901
  26        -0.01223901
  27         0.01334626
  28        -0.00000000
  29        -0.00000009
  30         0.00000014
Sym=     5a  
Ene=     0.0000
Spin= Alpha
Occup=    0.96855
   1         0.00000032
   2        -0.00000088
   3        -0.00000153
   4        -0.29822598
   5         0.45492253
   6         0.00000060
   7        -0.17880885
   8         0.27276019
   9         0.00000015
  10        -0.00000002
  11        -0.00000002
  12         0.00000005
  13        -0.00000000
  14        -0.02032791
  15         0.03100878
  16        -0.00000157
  17         0.00000328
  18         0.00000500
  19        -0.17966093
  20         0.27405998
  21         0.00000208
  22        -0.08207322
  23         0.12519686
  24         0.00000105
  25        -0.00000000
  26        -0.00000001
  27        -0.00000010
  28         0.00000001
  29         0.02139854
  30        -0.03264196
Sym=     5a  
Ene=     0.0000
Spin= Beta
Occup=    0.96855
   1         0.00000032
   2        -0.00000088
   3        -0.00000153
   4        -0.29822598
   5         0.45492253
   6         0.00000060
   7        -0.17880885
   8         0.27276019
   9         0.00000015
  10        -0.00000002
  11        -0.00000002
  12         0.00000005
  13        -0.00000000
  14        -0.02032791
  15         0.03100878
  16        -0.00000157
  17         0.00000328
  18         0.00000500
  19        -0.17966093
  20         0.27405998
  21         0.00000208
  22        -0.08207322
  23         0.12519686
  24         0.00000105
  25        -0.00000000
  26        -0.00000001
  27        -0.00000010
  28         0.00000001
  29         0.02139854
  30        -0.03264196
Sym=     6a  
Ene=     0.0000
Spin= Alpha
Occup=    0.98777
   1         0.00000000
   2        -0.00000000
   3        -0.00000000
   4        -0.40285465
   5        -0.26409271
   6         0.00000000
   7        -0.23303418
   8        -0.15276633
   9         0.00000000
  10         0.00000001
  11        -0.00000001
  12         0.00000000
  13        -0.00000000
  14        -0.03249807
  15        -0.02130422
  16        -0.00000000
  17         0.00000001
  18         0.00000001
  19        -0.32829235
  20        -0.21521315
  21         0.00000000
  22        -0.17868856
  23        -0.11713988
  24         0.00000000
  25         0.00000000
  26        -0.00000000
  27         0.00000000
  28        -0.00000000
  29         0.03366180
  30         0.02206710
Sym=     6a  
Ene=     0.0000
Spin= Beta
Occup=    0.98777
   1         0.00000000
   2        -0.00000000
   3        -0.00000000
   4        -0.40285465
   5        -0.26409271
   6         0.00000000
   7        -0.23303418
   8        -0.15276633
   9         0.00000000
  10         0.00000001
  11        -0.00000001
  12         0.00000000
  13        -0.00000000
  14        -0.03249807
  15        -0.02130422
  16        -0.00000000
  17         0.00000001
  18         0.00000001
  19        -0.32829235
  20        -0.21521315
  21         0.00000000
  22        -0.17868856
  23        -0.11713988
  24         0.00000000
  25         0.00000000
  26        -0.00000000
  27         0.00000000
  28        -0.00000000
  29         0.03366180
  30         0.02206710
Sym=     7a  
Ene=     0.0000
Spin= Alpha
Occup=    0.49875
   1         0.01625010
   2        -0.05580671
   3         0.07175846
   4         0.00000176
   5        -0.00000256
   6        -0.21429012
   7         0.00000102
   8        -0.00000146
   9        -0.10357258
  10        -0.00039697
  11        -0.00039697
  12        -0.02269529
  13         0.00000000
  14         0.00000015
  15        -0.00000023
  16        -0.14172682
  17         0.30212695
  18         0.50017844
  19         0.00000153
  20        -0.00000244
  21         0.49336144
  22         0.00000080
  23        -0.00000133
  24         0.21474790
  25        -0.00874749
  26        -0.00874749
  27         0.00304673
  28         0.00000000
  29        -0.00000012
  30         0.00000019
Sym=     7a  
Ene=     0.0000
Spin= Beta
Occup=    0.49875
   1         0.01625010
   2        -0.05580671
   3         0.07175846
   4         0.00000176
   5        -0.00000256
   6        -0.21429012
   7         0.00000102
   8        -0.00000146
   9        -0.10357258
  10        -0.00039697
  11        -0.00039697
  12        -0.02269529
  13         0.00000000
  14         0.00000015
  15        -0.00000023
  16        -0.14172682
  17         0.30212695
  18         0.50017844
  19         0.00000153
  20        -0.00000244
  21         0.49336144
  22         0.00000080
  23        -0.00000133
  24         0.21474790
  25        -0.00874749
  26        -0.00874749
  27         0.00304673
  28         0.00000000
  29        -0.00000012
  30         0.00000019
Sym=     8a  
Ene=     0.0000
Spin= Alpha
Occup=    0.51008
   1        -0.00000000
   2         0.00000001
   3        -0.00000001
   4         0.46333486
   5         0.30374071
   6         0.00000002
   7         0.34908895
   8         0.22884643
   9         0.00000001
  10         0.00000005
  11        -0.00000005
  12         0.00000000
  13        -0.00000002
  14        -0.01063513
  15        -0.00697190
  16         0.00000002
  17        -0.00000003
  18        -0.00000006
  19        -0.43812555
  20        -0.28721466
  21        -0.00000006
  22        -0.44077080
  23        -0.28894877
  24        -0.00000002
  25         0.00000012
  26        -0.00000012
  27        -0.00000000
  28        -0.00000006
  29         0.00660445
  30         0.00432957
Sym=     8a  
Ene=     0.0000
Spin= Beta
Occup=    0.51008
   1        -0.00000000
   2         0.00000001
   3        -0.00000001
   4         0.46333486
   5         0.30374071
   6         0.00000002
   7         0.34908895
   8         0.22884643
   9         0.00000001
  10         0.00000005
  11        -0.00000005
  12         0.00000000
  13        -0.00000002
  14        -0.01063513
  15        -0.00697190
  16         0.00000002
  17        -0.00000003
  18        -0.00000006
  19        -0.43812555
  20        -0.28721466
  21        -0.00000006
  22        -0.44077080
  23        -0.28894877
  24        -0.00000002
  25         0.00000012
  26        -0.00000012
  27        -0.00000000
  28        -0.00000006
  29         0.00660445
  30         0.00432957
Sym=     9a  
Ene=     0.0000
Spin= Alpha
Occup=    0.03171
   1        -0.00000004
   2         0.00000002
   3         0.00000029
   4        -0.27030472
   5         0.41233064
   6         0.00000052
   7        -0.20913066
   8         0.31901395
   9         0.00000015
  10        -0.00000001
  11        -0.00000005
  12        -0.00000002
  13         0.00000006
  14         0.00944738
  15        -0.01441131
  16         0.00000019
  17        -0.00000061
  18        -0.00000059
  19         0.31069424
  20        -0.47394197
  21        -0.00000040
  22         0.30079417
  23        -0.45884011
  24         0.00000003
  25        -0.00000006
  26        -0.00000016
  27         0.00000018
  28         0.00000013
  29        -0.00691408
  30         0.01054694
Sym=     9a  
Ene=     0.0000
Spin= Beta
Occup=    0.03171
   1        -0.00000004
   2         0.00000002
   3         0.00000029
   4        -0.27030472
   5         0.41233064
   6         0.00000052
   7        -0.20913066
   8         0.31901395
   9         0.00000015
  10        -0.00000001
  11        -0.00000005
  12        -0.00000002
  13         0.00000006
  14         0.00944738
  15        -0.01441131
  16         0.00000019
  17        -0.00000061
  18        -0.00000059
  19         0.31069424
  20        -0.47394197
  21        -0.00000040
  22         0.30079417
  23        -0.45884011
  24         0.00000003
  25        -0.00000006
  26        -0.00000016
  27         0.00000018
  28         0.00000013
  29        -0.00691408
  30         0.01054694
Sym=    10a  
Ene=     0.0000
Spin= Alpha
Occup=    0.00314
   1         0.10331525
   2        -0.25764849
   3        -1.09504945
   4         0.00000092
   5        -0.00000140
   6        -0.45563135
   7        -0.00000121
   8         0.00000183
   9        -0.25891563
  10         0.03620061
  11         0.03620061
  12         0.09120952
  13        -0.00000000
  14        -0.00000002
  15         0.00000004
  16        -0.05294130
  17        -0.26778606
  18         1.33953667
  19        -0.00000049
  20         0.00000074
  21        -0.63265134
  22         0.00000148
  23        -0.00000224
  24        -0.62652475
  25         0.20119117
  26         0.20119117
  27        -0.32499408
  28        -0.00000000
  29         0.00000019
  30        -0.00000029
Sym=    10a  
Ene=     0.0000
Spin= Beta
Occup=    0.00314
   1         0.10331525
   2        -0.25764849
   3        -1.09504945
   4         0.00000092
   5        -0.00000140
   6        -0.45563135
   7        -0.00000121
   8         0.00000183
   9        -0.25891563
  10         0.03620061
  11         0.03620061
  12         0.09120952
  13        -0.00000000
  14        -0.00000002
  15         0.00000004
  16        -0.05294130
  17        -0.26778606
  18         1.33953667
  19        -0.00000049
  20         0.00000074
  21        -0.63265134
  22         0.00000148
  23        -0.00000224
  24        -0.62652475
  25         0.20119117
  26         0.20119117
  27        -0.32499408
  28        -0.00000000
  29         0.00000019
  30        -0.00000029
Sym=    11a  
Ene=     0.6468
Spin= Alpha
Occup=    0.00000
   1         0.04775345
   2         0.04445801
   3        -1.65033865
   4        -0.00000027
   5         0.00000042
   6         0.09935039
   7         0.00000075
   8        -0.00000114
   9        -0.58092009
  10         0.06643216
  11         0.06643216
  12        -0.08528961
  13         0.00000000
  14         0.00000021
  15        -0.00000032
  16        -0.01670598
  17         0.61406080
  18         0.57357485
  19         0.00000204
  20        -0.00000311
  21         0.55087318
  22        -0.00000262
  23         0.00000398
  24        -1.83137929
  25         0.00344639
  26         0.00344639
  27         0.20822351
  28         0.00000000
  29        -0.00000003
  30         0.00000004
Sym=    11a  
Ene=     0.6468
Spin= Beta
Occup=    0.00000
   1         0.04775345
   2         0.04445801
   3        -1.65033865
   4        -0.00000027
   5         0.00000042
   6         0.09935039
   7         0.00000075
   8        -0.00000114
   9        -0.58092009
  10         0.06643216
  11         0.06643216
  12        -0.08528961
  13         0.00000000
  14         0.00000021
  15        -0.00000032
  16        -0.01670598
  17         0.61406080
  18         0.57357485
  19         0.00000204
  20        -0.00000311
  21         0.55087318
  22        -0.00000262
  23         0.00000398
  24        -1.83137929
  25         0.00344639
  26         0.00344639
  27         0.20822351
  28         0.00000000
  29        -0.00000003
  30         0.00000004
Sym=    12a  
Ene=     0.7264
Spin= Alpha
Occup=    0.00000
   1         0.00000000
   2         0.00000001
   3        -0.00000002
   4        -0.05137641
   5        -0.03326500
   6         0.00000000
   7        -0.09127841
   8        -0.05910059
   9        -0.00000000
  10         0.00000001
  11        -0.00000000
  12         0.00000000
  13        -0.00000000
  14        -0.08687945
  15        -0.05625237
  16        -0.00000000
  17         0.00000003
  18        -0.00000003
  19        -0.81924465
  20        -0.53044132
  21         0.00000002
  22         0.99181630
  23         0.64217733
  24        -0.00000003
  25         0.00000000
  26         0.00000000
  27         0.00000001
  28         0.00000000
  29         0.01451402
  30         0.00939748
Sym=    12a  
Ene=     0.7264
Spin= Beta
Occup=    0.00000
   1         0.00000000
   2         0.00000001
   3        -0.00000002
   4        -0.05137641
   5        -0.03326500
   6         0.00000000
   7        -0.09127841
   8        -0.05910059
   9        -0.00000000
  10         0.00000001
  11        -0.00000000
  12         0.00000000
  13        -0.00000000
  14        -0.08687945
  15        -0.05625237
  16        -0.00000000
  17         0.00000003
  18        -0.00000003
  19        -0.81924465
  20        -0.53044132
  21         0.00000002
  22         0.99181630
  23         0.64217733
  24        -0.00000003
  25         0.00000000
  26         0.00000000
  27         0.00000001
  28         0.00000000
  29         0.01451402
  30         0.00939748
Sym=    13a  
Ene=     0.7264
Spin= Alpha
Occup=    0.00000
   1        -0.00000002
   2        -0.00000043
   3         0.00000189
   4         0.03326500
   5        -0.05137641
   6         0.00000004
   7         0.05910059
   8        -0.09127841
   9        -0.00000005
  10        -0.00000018
  11        -0.00000018
  12         0.00000004
  13         0.00000000
  14         0.05625237
  15        -0.08687945
  16         0.00000013
  17        -0.00000424
  18         0.00000429
  19         0.53044132
  20        -0.81924465
  21        -0.00000299
  22        -0.64217733
  23         0.99181630
  24         0.00000418
  25        -0.00000032
  26        -0.00000032
  27        -0.00000076
  28        -0.00000000
  29        -0.00939748
  30         0.01451402
Sym=    13a  
Ene=     0.7264
Spin= Beta
Occup=    0.00000
   1        -0.00000002
   2        -0.00000043
   3         0.00000189
   4         0.03326500
   5        -0.05137641
   6         0.00000004
   7         0.05910059
   8        -0.09127841
   9        -0.00000005
  10        -0.00000018
  11        -0.00000018
  12         0.00000004
  13         0.00000000
  14         0.05625237
  15        -0.08687945
  16         0.00000013
  17        -0.00000424
  18         0.00000429
  19         0.53044132
  20        -0.81924465
  21        -0.00000299
  22        -0.64217733
  23         0.99181630
  24         0.00000418
  25        -0.00000032
  26        -0.00000032
  27        -0.00000076
  28        -0.00000000
  29        -0.00939748
  30         0.01451402
Sym=    14a  
Ene=     0.8877
Spin= Alpha
Occup=    0.00000
   1        -0.00500576
   2         0.14226689
   3         0.86638099
   4         0.00000073
   5        -0.00000111
   6        -0.54325034
   7        -0.00000102
   8         0.00000154
   9         0.91911071
  10         0.01173698
  11         0.01173698
  12         0.30784260
  13        -0.00000000
  14         0.00000011
  15        -0.00000017
  16        -0.08099988
  17         0.83050371
  18        -2.07246421
  19         0.00000108
  20        -0.00000165
  21         0.08682158
  22        -0.00000068
  23         0.00000104
  24         0.69958495
  25         0.20681069
  26         0.20681069
  27        -0.19822558
  28        -0.00000000
  29        -0.00000004
  30         0.00000006
Sym=    14a  
Ene=     0.8877
Spin= Beta
Occup=    0.00000
   1        -0.00500576
   2         0.14226689
   3         0.86638099
   4         0.00000073
   5        -0.00000111
   6        -0.54325034
   7        -0.00000102
   8         0.00000154
   9         0.91911071
  10         0.01173698
  11         0.01173698
  12         0.30784260
  13        -0.00000000
  14         0.00000011
  15        -0.00000017
  16        -0.08099988
  17         0.83050371
  18        -2.07246421
  19         0.00000108
  20        -0.00000165
  21         0.08682158
  22        -0.00000068
  23         0.00000104
  24         0.69958495
  25         0.20681069
  26         0.20681069
  27        -0.19822558
  28        -0.00000000
  29        -0.00000004
  30         0.00000006
Sym=    15a  
Ene=     1.0036
Spin= Alpha
Occup=    0.00000
   1        -0.02596748
   2         0.48845968
   3        -0.48569375
   4        -0.00000015
   5         0.00000023
   6        -0.27436769
   7         0.00000022
   8        -0.00000033
   9         1.25994923
  10         0.20543726
  11         0.20543726
  12         0.08653856
  13         0.00000000
  14        -0.00000001
  15         0.00000001
  16        -0.01325010
  17        -1.04290895
  18         0.40896218
  19        -0.00000006
  20         0.00000010
  21         0.61740082
  22        -0.00000003
  23         0.00000005
  24        -0.33591161
  25        -0.05227412
  26        -0.05227412
  27        -0.10468857
  28         0.00000000
  29         0.00000001
  30        -0.00000001
Sym=    15a  
Ene=     1.0036
Spin= Beta
Occup=    0.00000
   1        -0.02596748
   2         0.48845968
   3        -0.48569375
   4        -0.00000015
   5         0.00000023
   6        -0.27436769
   7         0.00000022
   8        -0.00000033
   9         1.25994923
  10         0.20543726
  11         0.20543726
  12         0.08653856
  13         0.00000000
  14        -0.00000001
  15         0.00000001
  16        -0.01325010
  17        -1.04290895
  18         0.40896218
  19        -0.00000006
  20         0.00000010
  21         0.61740082
  22        -0.00000003
  23         0.00000005
  24        -0.33591161
  25        -0.05227412
  26        -0.05227412
  27        -0.10468857
  28         0.00000000
  29         0.00000001
  30        -0.00000001
Sym=    16a  
Ene=     1.1892
Spin= Alpha
Occup=    0.00000
   1         0.00000020
   2         0.00000049
   3        -0.00000253
   4        -0.50130102
   5         0.73718311
   6        -0.00000162
   7         0.76741437
   8        -1.12851338
   9         0.00000009
  10         0.00000010
  11         0.00000009
  12         0.00000111
  13         0.00000001
  14        -0.01458960
  15         0.02145458
  16        -0.00000023
  17         0.00000084
  18         0.00000066
  19         0.03365191
  20        -0.04948648
  21        -0.00000168
  22        -0.35987077
  23         0.52920429
  24         0.00000023
  25         0.00000037
  26         0.00000035
  27        -0.00000081
  28         0.00000002
  29         0.05759661
  30        -0.08469811
Sym=    16a  
Ene=     1.1892
Spin= Beta
Occup=    0.00000
   1         0.00000020
   2         0.00000049
   3        -0.00000253
   4        -0.50130102
   5         0.73718311
   6        -0.00000162
   7         0.76741437
   8        -1.12851338
   9         0.00000009
  10         0.00000010
  11         0.00000009
  12         0.00000111
  13         0.00000001
  14        -0.01458960
  15         0.02145458
  16        -0.00000023
  17         0.00000084
  18         0.00000066
  19         0.03365191
  20        -0.04948648
  21        -0.00000168
  22        -0.35987077
  23         0.52920429
  24         0.00000023
  25         0.00000037
  26         0.00000035
  27        -0.00000081
  28         0.00000002
  29         0.05759661
  30        -0.08469811
Sym=    17a  
Ene=     1.1892
Spin= Alpha
Occup=    0.00000
   1         0.00000000
   2         0.00000001
   3        -0.00000005
   4         0.73718311
   5         0.50130102
   6        -0.00000002
   7        -1.12851338
   8        -0.76741437
   9        -0.00000000
  10         0.00000001
  11        -0.00000001
  12         0.00000002
  13        -0.00000000
  14         0.02145458
  15         0.01458960
  16        -0.00000000
  17         0.00000001
  18         0.00000001
  19        -0.04948648
  20        -0.03365191
  21        -0.00000002
  22         0.52920429
  23         0.35987077
  24         0.00000000
  25         0.00000003
  26        -0.00000002
  27        -0.00000001
  28        -0.00000001
  29        -0.08469811
  30        -0.05759661
Sym=    17a  
Ene=     1.1892
Spin= Beta
Occup=    0.00000
   1         0.00000000
   2         0.00000001
   3        -0.00000005
   4         0.73718311
   5         0.50130102
   6        -0.00000002
   7        -1.12851338
   8        -0.76741437
   9        -0.00000000
  10         0.00000001
  11        -0.00000001
  12         0.00000002
  13        -0.00000000
  14         0.02145458
  15         0.01458960
  16        -0.00000000
  17         0.00000001
  18         0.00000001
  19        -0.04948648
  20        -0.03365191
  21        -0.00000002
  22         0.52920429
  23         0.35987077
  24         0.00000000
  25         0.00000003
  26        -0.00000002
  27        -0.00000001
  28        -0.00000001
  29        -0.08469811
  30        -0.05759661
Sym=    18a  
Ene=     1.5863
Spin= Alpha
Occup=    0.00000
   1        -0.12500291
   2        -1.78460737
   3         6.16825438
   4        -0.00000027
   5         0.00000041
   6        -0.06532477
   7         0.00000047
   8        -0.00000072
   9         1.84585996
  10        -0.39615510
  11        -0.39615510
  12        -0.63953477
  13        -0.00000000
  14        -0.00000005
  15         0.00000008
  16        -0.03404798
  17        -0.20528933
  18        -3.39171564
  19         0.00000016
  20        -0.00000025
  21         0.32732494
  22        -0.00000038
  23         0.00000058
  24         2.02529529
  25         0.12125158
  26         0.12125158
  27        -0.15692073
  28        -0.00000000
  29         0.00000013
  30        -0.00000020
Sym=    18a  
Ene=     1.5863
Spin= Beta
Occup=    0.00000
   1        -0.12500291
   2        -1.78460737
   3         6.16825438
   4        -0.00000027
   5         0.00000041
   6        -0.06532477
   7         0.00000047
   8        -0.00000072
   9         1.84585996
  10        -0.39615510
  11        -0.39615510
  12        -0.63953477
  13        -0.00000000
  14        -0.00000005
  15         0.00000008
  16        -0.03404798
  17        -0.20528933
  18        -3.39171564
  19         0.00000016
  20        -0.00000025
  21         0.32732494
  22        -0.00000038
  23         0.00000058
  24         2.02529529
  25         0.12125158
  26         0.12125158
  27        -0.15692073
  28        -0.00000000
  29         0.00000013
  30        -0.00000020
Sym=    19a  
Ene=     1.7528
Spin= Alpha
Occup=    0.00000
   1         0.00000000
   2         0.00000000
   3        -0.00000000
   4         0.00000006
   5         0.00000006
   6         0.00000000
   7         0.00000002
   8         0.00000002
   9        -0.00000000
  10        -0.51480622
  11         0.51480622
  12         0.00000000
  13         0.14479936
  14         0.00000004
  15         0.00000003
  16         0.00000000
  17         0.00000000